LAMMPS data file
                
60    atoms
3     atom types
40    bonds
5     bond types
23    angles
4     angle types
7     dihedrals
1     dihedral types
3     impropers
1     improper types

-15.00000000 15.00000000  xlo xhi
-15.00000000 15.00000000  ylo yhi
-15.00000000 15.00000000  zlo zhi

Masses

1     1.0000  
2     2.0000  
3     1.5000  

Atoms

1     1     1         0.00000000     9.49144969     8.74534055    -0.83284198
2     1     3         0.00000000     8.50855031     9.25465945     0.83284198
3     2     1         0.00000000     0.32858419     9.37775027     8.13435737
4     2     3         0.00000000    -0.32858419     8.62224973     9.86564263
5     3     1         0.10000000     8.90704469     1.35351862    -7.22254490
6     3     2        -0.10000000     9.01918789     0.18987247    -8.01837875
7     3     2         0.00000000     8.98081211    -0.18987247    -9.98162125
8     3     3         0.00000000     9.09295531    -1.35351862   -10.77745510
9     4     1         0.00000000    -8.65448750     9.27078316     9.89849741
10    4     1         0.00000000    -9.34551250     8.72921684     8.10150259
11    5     1         0.10000000    10.58350453    -8.66325250     7.45756215
12    5     2        -0.10000000     9.69831323    -9.30677782     8.35328058
13    5     2         0.00000000     8.30168677    -8.69322218     9.64671942
14    5     3         0.00000000     7.41649547    -9.33674750    10.54243785
15    6     2        -0.10000000    -9.00000000     0.00000000    -9.00000000
16    6     2         0.00000000    -9.23157043     1.39475299    -9.03223700
17    6     1         0.05000000    -9.58737041    -0.12710961   -10.28017153
18    6     1         0.05000000    -8.18105915    -1.26764338    -7.68759147
19    20    1         0.00000000   -10.23079314     8.61689041    -0.17777479
20    19    1         0.00000000     1.12956806    -0.37882345     0.27866404
21    7     1         0.10000000     1.97358318    10.04029579    -0.15084461
22    7     2        -0.10000000     0.75643871     9.54080481     0.36787313
23    7     2         0.00000000    -0.75643871     8.45919519    -0.36787313
24    7     3         0.00000000    -1.97358318     7.95970421     0.15084461
25    8     2        -0.10000000    -9.00000000     9.00000000    -9.00000000
26    8     2         0.00000000   -10.09633251     9.36504906    -9.81534913
27    8     1         0.05000000    -9.87593698     8.81425632    -7.90536139
28    8     1         0.05000000    -7.02773050     8.82069463    -9.27928948
29    17    1         0.05000000    -8.75825989     1.90738238    -0.13967873
30    18    1         0.00000000   -10.42859670     0.44720997     0.17555993
31    9     1         0.00000000     9.57522057    -9.23956757    -8.21786915
32    9     3         0.00000000     8.42477943    -8.76043243    -9.78213085
33    10    1         0.00000000    -0.37441866    -9.48691893    -0.78912649
34    10    3         0.00000000     0.37441866    -8.51308107     0.78912649
35    11    1         0.10000000    -0.01113670    10.18863211    -7.10605446
36    11    2        -0.10000000     0.00372223     9.85420497    -8.48007692
37    11    2         0.00000000    -0.00372223     8.14579503    -9.51992308
38    11    3         0.00000000     0.01113670     7.81136789   -10.89394554
39    17    1         0.05000000    -9.75825989    -1.09261762    -0.13967873
40    17    2        -0.10000000    -8.75825989    -0.09261762    -0.13967873
41    17    2         0.00000000    -7.75825989    -1.09261762    -0.13967873
42    18    3         0.00000000    -8.42859670     0.44720997     0.17555993
43    12    1         0.10000000   -10.91186738    -0.13464454    10.15179597
44    12    2        -0.10000000    -9.53354772    -0.06293397     9.84342525
45    12    2         0.00000000    -8.46645228     0.06293397     8.15657475
46    12    3         0.00000000    -7.08813262     0.13464454     7.84820403
47    13    1         0.10000000    -9.71898537    -9.37256354     2.08428800
48    13    2        -0.10000000    -9.09895000    -8.76615700     0.96722611
49    13    2         0.00000000    -8.90105000    -9.23384300    -0.96722611
50    13    3         0.00000000    -8.28101463    -8.62743646    -2.08428800
51    14    1         0.00000000    -9.71343993    -9.69690583     8.92702236
52    14    3         0.00000000    -8.28656007    -8.30309417     9.07297764
53    15    1         0.00000000     0.08305188    -0.05037200     8.00472866
54    15    3         0.00000000    -0.08305188     0.05037200     9.99527134
55    16    1         0.10000000     7.83537688   -10.36984937     1.32934785
56    16    2        -0.10000000     8.66225447    -9.89741962     0.28384147
57    16    2         0.00000000     9.33774553    -8.10258038    -0.28384147
58    16    3         0.00000000    10.16462312    -7.63015063    -1.32934785
59    19    1         0.00000000    -0.87043194    -0.37882345     0.27866404
60    20    1         0.00000000    -8.23079314     8.61689041    -0.17777479

Bonds

1    5    1    2   
2    5    3    4   
3    2    5    6   
4    3    6    7   
5    4    7    8   
6    1    9    10  
7    2    11   12  
8    3    12   13  
9    4    13   14  
10   3    15   16  
11   4    18   15  
12   4    17   15  
13   2    21   22  
14   3    22   23  
15   4    23   24  
16   3    25   26  
17   4    28   25  
18   4    27   25  
19   5    31   32  
20   5    33   34  
21   2    35   36  
22   3    36   37  
23   4    37   38  
24   2    43   44  
25   3    44   45  
26   4    45   46  
27   2    47   48  
28   3    48   49  
29   4    49   50  
30   5    51   52  
31   5    53   54  
32   2    55   56  
33   3    56   57  
34   4    57   58  
35   3    40   41  
36   4    29   40  
37   4    39   40  
38   5    30   42  
39   1    59   20  
40   1    19   60  

Angles

1    1    5    6    7   
2    2    6    7    8   
3    1    11   12   13  
4    2    12   13   14  
5    3    18   15   16  
6    3    17   15   16  
7    4    18   15   17  
8    1    21   22   23  
9    2    22   23   24  
10   3    28   25   26  
11   3    27   25   26  
12   4    28   25   27  
13   1    35   36   37  
14   2    36   37   38  
15   1    43   44   45  
16   2    44   45   46  
17   1    47   48   49  
18   2    48   49   50  
19   1    55   56   57  
20   2    56   57   58  
21   3    29   40   41  
22   3    39   40   41  
23   4    29   40   39  

Dihedrals

1    1    5    6    7    8   
2    1    11   12   13   14  
3    1    21   22   23   24  
4    1    35   36   37   38  
5    1    43   44   45   46  
6    1    47   48   49   50  
7    1    55   56   57   58  

Impropers

1    1    15   18   17   16  
2    1    25   28   27   26  
3    1    40   29   39   41  
