LAMMPS data file
                
38    atoms
9     atom types
28    bonds
6     bond types
30    angles
5     angle types
12    dihedrals
1     dihedral types
12    impropers
1     improper types

-15.00000000 15.00000000  xlo xhi
-15.00000000 15.00000000  ylo yhi
-15.00000000 15.00000000  zlo zhi

Masses

1     12.0110 
2     15.9990 
3     1.0080  
4     1.0080  
5     15.9990 
6     15.9990 
7     1.0080  
8     12.0110 
9     15.9990 

Atoms

1     1     1        -0.04910000     0.00336446     9.16846323     0.29429376
2     1     2        -0.58730000     0.77446231     8.76390448    -0.92707445
3     1     3         0.07670000    -0.33387835     8.34308106     0.96883921
4     1     3         0.07670000    -1.06755561     9.71127176     0.05244852
5     1     3         0.07670000     0.64042947     9.85559563     1.08296178
6     1     4         0.46020000    -0.01682228     8.15768384    -1.47146882
7     2     8         0.65200000     8.83970962    -8.98259994     9.04221385
8     2     9        -0.32600000     8.83947178    -8.88900774     8.01569524
9     2     9        -0.32600000     9.32081860    -9.12839233     9.94209091
10    3     1        -0.04910000    -0.03416307    -0.21780879     0.25766687
11    3     2        -0.58730000    -0.14702614     1.20487580    -0.20410200
12    3     3         0.07670000     0.98781827    -0.67070539     0.23671926
13    3     3         0.07670000    -0.64801247    -1.01889171    -0.43620277
14    3     3         0.07670000    -0.32943195    -0.38651387     1.43425298
15    3     4         0.46020000     0.17081536     1.08904396    -1.28833434
16    4     5         0.00000000     0.44800106     8.15376303     8.71159397
17    4     5         0.00000000    -0.44800106     9.84623697     9.28840603
18    5     5         0.00000000     0.52771088     0.46818134    -8.29124937
19    5     5         0.00000000    -0.52771088    -0.46818134    -9.70875063
20    6     1        -0.04910000    -8.76031217    -9.13234668    -9.20008524
21    6     2        -0.58730000    -9.34051291    -9.06024631    -7.81872047
22    6     3         0.07670000    -8.34028136    -8.18341212    -9.61613489
23    6     3         0.07670000    -9.57410861    -9.41698183   -10.06998074
24    6     3         0.07670000    -7.78634581    -9.86874644    -9.29550486
25    6     4         0.46020000   -10.19843913    -8.33826662    -7.99957380
26    7     6        -0.83400000     0.00184314    -9.09182534     9.13907727
27    7     7         0.41700000     0.98432354    -9.09062041     8.82725870
28    7     7         0.41700000    -0.98616668    -8.81755425     9.03366402
29    8     5         0.00000000    -0.14112713    -8.51370205    -0.86232096
30    8     5         0.00000000     0.14112713    -9.48629795     0.86232096
31    9     1        -0.04910000     8.96378030    -0.30747586     0.13837171
32    9     2        -0.58730000     9.42020515     1.10819355     0.33216666
33    9     3         0.07670000     9.50917612    -0.90775527    -0.63117883
34    9     3         0.07670000     7.81413794    -0.41054622    -0.27113892
35    9     3         0.07670000     9.11160198    -1.01979549     1.12363791
36    9     4         0.46020000     9.18109851     1.53737929    -0.69185854
37    10    5         0.00000000     9.59702029     0.77834372     8.80571200
38    10    5         0.00000000     8.40297971    -0.77834372     9.19428800

Bonds

1    1    1    2   
2    2    1    3   
3    2    1    4   
4    2    1    5   
5    3    2    6   
7    6    7    8   
7    6    7    9   
8    1    10   11  
9    2    10   12  
10   2    10   13  
11   2    10   14  
12   3    11   15  
13   4    16   17  
14   4    18   19  
15   1    20   21  
16   2    20   22  
17   2    20   23  
18   2    20   24  
19   3    21   25  
21   5    26   27  
21   5    26   28  
22   4    29   30  
23   1    31   32  
24   2    31   33  
25   2    31   34  
26   2    31   35  
27   3    32   36  
28   4    37   38  

Angles

1    1    2    1    3   
2    1    2    1    4   
3    1    2    1    5   
4    2    1    2    6   
5    3    3    1    4   
6    3    3    1    5   
7    3    4    1    5   
8    5    8    7    9   
9    1    11   10   12  
10   1    11   10   13  
11   1    11   10   14  
12   2    10   11   15  
13   3    12   10   13  
14   3    12   10   14  
15   3    13   10   14  
16   1    21   20   22  
17   1    21   20   23  
18   1    21   20   24  
19   2    20   21   25  
20   3    22   20   23  
21   3    22   20   24  
22   3    23   20   24  
23   4    27   26   28  
24   1    32   31   33  
25   1    32   31   34  
26   1    32   31   35  
27   2    31   32   36  
28   3    33   31   34  
29   3    33   31   35  
30   3    34   31   35  

Dihedrals

1    1    3    1    2    6   
2    1    4    1    2    6   
3    1    5    1    2    6   
4    1    12   10   11   15  
5    1    13   10   11   15  
6    1    14   10   11   15  
7    1    22   20   21   25  
8    1    23   20   21   25  
9    1    24   20   21   25  
10   1    33   31   32   36  
11   1    34   31   32   36  
12   1    35   31   32   36  

Impropers

1    1    1    2    3    4   
2    1    1    2    3    5   
3    1    1    2    4    5   
4    1    10   11   12   13  
5    1    10   11   12   14  
6    1    10   11   13   14  
7    1    20   21   22   23  
8    1    20   21   22   24  
9    1    20   21   23   24  
10   1    31   32   33   34  
11   1    31   32   33   35  
12   1    31   32   34   35  
