ITEM: TIMESTEP
1
ITEM: NUMBER OF ATOMS
2
ITEM: BOX BOUNDS pp pp pp
-5.00000000000000e+00 5.00000000000000e+00
-5.00000000000000e+00 5.00000000000000e+00
-5.00000000000000e+00 5.00000000000000e+00
ITEM: ATOMS id mol type xu yu zu
1 1 1    -2.5000    -2.5000    -2.5000
2 2 1    -2.5000     2.5000    -2.5000

ITEM: TIMESTEP
2
ITEM: NUMBER OF ATOMS
2
ITEM: BOX BOUNDS pp pp pp
-5.00000000000000e+00 5.00000000000000e+00
-5.00000000000000e+00 5.00000000000000e+00
-5.00000000000000e+00 5.00000000000000e+00
ITEM: ATOMS id mol type xu yu zu
1 1 1     4.9000     4.9000     4.9000
2 2 1     5.0000     2.5000     6.1000

ITEM: TIMESTEP
3
ITEM: NUMBER OF ATOMS
2
ITEM: BOX BOUNDS pp pp pp
-5.00000000000000e+00 5.00000000000000e+00
-5.00000000000000e+00 5.00000000000000e+00
-5.00000000000000e+00 5.00000000000000e+00
ITEM: ATOMS id mol type xu yu zu
1 1 1      2.5000    -2.5000     2.5000
2 2 1     -2.5000    -4.9000     0.1000