LAMMPS data file
                
15    atoms
3     atom types
8     bonds
5     bond types
5     angles
4     angle types
1     dihedrals
1     dihedral types
1     impropers
1     improper types

-10.00000000 10.00000000  xlo xhi
-10.00000000 10.00000000  ylo yhi
-10.00000000 10.00000000  zlo zhi

Masses

1     1.0000  
2     2.0000  
3     1.5000  

Atoms

1     1     1         0.00000000    -5.00000000    -5.00000000    -5.00000000
2     2     1         0.00000000    -5.00000000    -5.00000000     5.00000000
3     3     1         0.00000000    -5.00000000     5.00000000    -5.00000000
4     4     1         0.00000000    -6.00000000     5.00000000     5.00000000
5     4     1         0.00000000    -4.00000000     5.00000000     5.00000000
6     5     2        -0.10000000     5.00000000    -5.00000000    -5.00000000
7     5     2         0.00000000     6.00000000    -6.00000000    -5.00000000
8     5     1         0.05000000     4.00000000    -6.00000000    -5.00000000
9     5     1         0.05000000     5.00000000    -3.00000000    -5.00000000
10    6     1         0.10000000     3.00000000    -6.00000000     5.00000000
11    6     2        -0.10000000     4.00000000    -5.00000000     5.00000000
12    6     2         0.00000000     6.00000000    -5.00000000     5.00000000
13    6     3         0.00000000     7.00000000    -4.00000000     5.00000000
14    7     1         0.00000000     4.00000000     5.00000000    -5.00000000
15    7     3         0.00000000     6.00000000     5.00000000    -5.00000000

Bonds

1    1    4    5   
2    3    6    7   
3    4    9    6   
4    4    8    6   
5    2    10   11  
6    3    11   12  
7    4    12   13  
8    5    14   15  

Angles

1    3    9    6    7   
2    3    8    6    7   
3    4    9    6    8   
4    1    10   11   12  
5    2    11   12   13  

Dihedrals

1    1    10   11   12   13  

Impropers

1    1    6    9    8    7   
