LAMMPS data file
                
15    atoms
3     atom types
8     bonds
5     bond types
6     angles
4     angle types
0     dihedrals
1     dihedral types
2     impropers
1     improper types

-10.00000000 10.00000000  xlo xhi
-10.00000000 10.00000000  ylo yhi
-10.00000000 10.00000000  zlo zhi

Masses

1     1.0000  
2     2.0000  
3     1.5000  

Atoms

1     4     1         0.05000000     5.26910828    -3.43349601     4.93143395
2     5     1         0.00000000     4.06432985    -5.33330286     4.55084841
3     1     1         0.00000000    -5.00000000     5.00000000    -5.00000000
4     6     1         0.00000000    -4.59232299     5.29795113     4.54477617
5     7     1         0.00000000    -5.22381022     4.88731985     4.79746681
6     2     2        -0.10000000     5.00000000    -5.00000000    -5.00000000
7     2     2         0.00000000     6.00000000    -6.00000000    -5.00000000
8     2     1         0.05000000     4.00000000    -6.00000000    -5.00000000
9     2     1         0.05000000     5.00000000    -3.00000000    -5.00000000
10    4     1         0.05000000     4.26910828    -6.43349601     4.93143395
11    4     2        -0.10000000     5.26910828    -5.43349601     4.93143395
12    4     2         0.00000000     6.26910828    -6.43349601     4.93143395
13    5     3         0.00000000     6.06432985    -5.33330286     4.55084841
14    3     1         0.00000000     4.00000000     5.00000000    -5.00000000
15    3     3         0.00000000     6.00000000     5.00000000    -5.00000000

Bonds

1    3    6    7   
2    4    9    6   
3    4    8    6   
4    5    14   15  
5    3    11   12  
6    4    1    11  
7    4    10   11  
8    5    2    13  

Angles

1    3    9    6    7   
2    3    8    6    7   
3    4    9    6    8   
4    3    1    11   12  
5    3    10   11   12  
6    4    1    11   10  

Impropers

1    1    6    9    8    7   
2    1    11   1    10   12  
