LAMMPS data file
                
60    atoms
3     atom types
39    bonds
5     bond types
22    angles
4     angle types
8     dihedrals
1     dihedral types
2     impropers
1     improper types

-15.00000000 15.00000000  xlo xhi
-15.00000000 15.00000000  ylo yhi
-15.00000000 15.00000000  zlo zhi

Masses

1     1.0000  
2     2.0000  
3     1.5000  

Atoms

1     1     1         0.00000000    -9.00798417    -9.88794034    -8.54011065
2     1     3         0.00000000    -8.99201583    -8.11205966    -9.45988935
3     2     1         0.00000000     0.00000000     0.00000000     9.00000000
4     3     2        -0.10000000    -0.00000000    -9.00000000    -9.00000000
5     3     2         0.00000000    -1.31376057    -9.44083853    -9.28230226
6     3     1         0.05000000     0.52102661   -10.02738801    -9.82036891
7     3     1         0.05000000     0.79273396    -7.53177347    -7.89732883
8     4     1         0.00000000     8.25426325    -0.61545131    -8.74486008
9     4     1         0.00000000     9.74573675     0.61545131    -9.25513992
10    5     1         0.10000000     7.01289851     8.85833155    -1.01555783
11    5     2        -0.10000000     8.07570652     9.32152061    -0.20568437
12    5     2         0.00000000     9.92429348     8.67847939     0.20568437
13    5     3         0.00000000    10.98710149     9.14166845     1.01555783
14    6     1         0.00000000    -8.81939942     0.05999940     9.98172476
15    6     3         0.00000000    -9.18060058    -0.05999940     8.01827524
16    7     1         0.10000000    10.34936378     0.59960632    10.67919316
17    7     2        -0.10000000     9.61905439    -0.19096136     9.76177780
18    7     2         0.00000000     8.38094561     0.19096136     8.23822220
19    7     3         0.00000000     7.65063622    -0.59960632     7.32080684
20    8     1         0.10000000    -7.28917181    10.00502559    10.03101430
21    8     2        -0.10000000    -8.04553269     9.28888147     9.07442879
22    8     2         0.00000000    -9.95446731     8.71111853     8.92557121
23    8     3         0.00000000   -10.71082819     7.99497441     7.96898570
24    9     1         0.00000000     0.00000000     9.00000000    -9.00000000
25    10    1         0.00000000     8.13544755     8.69687465     8.59917074
26    10    3         0.00000000     9.86455245     9.30312535     9.40082926
27    11    1         0.10000000    -2.20485853    -9.36199421     0.08694286
28    11    2        -0.10000000    -0.94871274    -8.80651545    -0.25001574
29    11    2         0.00000000     0.94871274    -9.19348455     0.25001574
30    11    3         0.00000000     2.20485853    -8.63800579    -0.08694286
31    12    1         0.00000000    -9.00572558    -0.33368837     0.94266605
32    12    3         0.00000000    -8.99427442     0.33368837    -0.94266605
33    21    1         0.00000000     1.29832056    -8.52140368     8.54720777
34    21    1         0.00000000    -0.70167944    -8.52140368     8.54720777
35    13    1         0.10000000     9.04018729    -7.16276953   -10.27395807
36    13    2        -0.10000000     8.78035963    -8.47817411    -9.82429112
37    13    2         0.00000000     9.21964037    -9.52182589    -8.17570888
38    13    3         0.00000000     8.95981271   -10.83723047    -7.72604193
39    14    1         0.10000000     8.26014049   -10.85521945     1.00536994
40    14    2        -0.10000000     8.70282919    -9.95478420     0.00875412
41    14    2         0.00000000     9.29717081    -8.04521580    -0.00875412
42    14    3         0.00000000     9.73985951    -7.14478055    -1.00536994
43    15    2        -0.10000000    -9.00000000     9.00000000    -9.00000000
44    15    2         0.00000000    -7.81604862     8.30839447    -9.34632488
45    15    1         0.05000000    -9.16174642     8.15940137    -7.87428598
46    15    1         0.05000000   -10.02220496    10.53220416    -9.77938914
47    16    1         0.00000000     0.33317273     8.93806306     0.94082929
48    16    3         0.00000000    -0.33317273     9.06193694    -0.94082929
49    17    1         0.00000000    -9.71095099     0.15102997    -8.31316768
50    17    3         0.00000000    -8.28904901    -0.15102997    -9.68683232
51    18    1         0.10000000     6.89309932     8.62901500    -8.34935442
52    18    2        -0.10000000     8.03772806     9.25234685    -8.89824646
53    18    2         0.00000000     9.96227194     8.74765315    -9.10175354
54    18    3         0.00000000    11.10690068     9.37098500    -9.65064558
55    19    1         0.00000000     0.00236493    -0.94765738    -9.31928028
56    19    1         0.00000000    -0.00236493     0.94765738    -8.68071972
57    20    1         0.10000000     6.94308986     0.55039274    -0.68277998
58    20    2        -0.10000000     8.30397666     0.16602561    -0.69856066
59    20    2         0.00000000     9.69602334    -0.16602561     0.69856066
60    20    3         0.00000000    11.05691014    -0.55039274     0.68277998

Bonds

1    5    1    2   
2    3    4    5   
3    4    7    4   
4    4    6    4   
5    1    8    9   
6    2    10   11  
7    3    11   12  
8    4    12   13  
9    5    14   15  
10   2    16   17  
11   3    17   18  
12   4    18   19  
13   2    20   21  
14   3    21   22  
15   4    22   23  
16   5    25   26  
17   2    27   28  
18   3    28   29  
19   4    29   30  
20   5    31   32  
21   2    35   36  
22   3    36   37  
23   4    37   38  
24   2    39   40  
25   3    40   41  
26   4    41   42  
27   3    43   44  
28   4    46   43  
29   4    45   43  
30   5    47   48  
31   5    49   50  
32   2    51   52  
33   3    52   53  
34   4    53   54  
35   1    55   56  
36   2    57   58  
37   3    58   59  
38   4    59   60  
39   1    34   33  

Angles

1    3    7    4    5   
2    3    6    4    5   
3    4    7    4    6   
4    1    10   11   12  
5    2    11   12   13  
6    1    16   17   18  
7    2    17   18   19  
8    1    20   21   22  
9    2    21   22   23  
10   1    27   28   29  
11   2    28   29   30  
12   1    35   36   37  
13   2    36   37   38  
14   1    39   40   41  
15   2    40   41   42  
16   3    46   43   44  
17   3    45   43   44  
18   4    46   43   45  
19   1    51   52   53  
20   2    52   53   54  
21   1    57   58   59  
22   2    58   59   60  

Dihedrals

1    1    10   11   12   13  
2    1    16   17   18   19  
3    1    20   21   22   23  
4    1    27   28   29   30  
5    1    35   36   37   38  
6    1    39   40   41   42  
7    1    51   52   53   54  
8    1    57   58   59   60  

Impropers

1    1    4    7    6    5   
2    1    43   46   45   44  
