ITEM: TIMESTEP
20
ITEM: NUMBER OF ATOMS
3
ITEM: BOX BOUNDS pp pp pp
-5.25000000000000e+00 5.25000000000000e+00
-5.25000000000000e+00 5.25000000000000e+00
-5.25000000000000e+00 5.25000000000000e+00
ITEM: ATOMS id mol type xu yu zu
1 1 1    -2.5000    -2.5000    -2.5000
2 2 1    -1.0000    -1.0000    -1.0000
3 2 1     1.0000     1.0000     1.0000

ITEM: TIMESTEP
30
ITEM: NUMBER OF ATOMS
3
ITEM: BOX BOUNDS pp pp pp
-5.25000000000000e+00 5.25000000000000e+00
-5.25000000000000e+00 5.25000000000000e+00
-5.25000000000000e+00 5.25000000000000e+00
ITEM: ATOMS id mol type xu yu zu
1 1 1     4.9000     4.9000     4.9000
2 2 1     2.0000    -1.0000    -1.0000
3 2 1     4.0000     1.0000     1.0000

ITEM: TIMESTEP
40
ITEM: NUMBER OF ATOMS
3
ITEM: BOX BOUNDS pp pp pp
-5.25000000000000e+00 5.25000000000000e+00
-5.25000000000000e+00 5.25000000000000e+00
-5.25000000000000e+00 5.25000000000000e+00
ITEM: ATOMS id mol type xu yu zu
1 1 1     2.5000    -2.5000     2.5000
2 2 1     2.0000     2.0000    -1.0000
3 2 1     4.0000     4.0000     1.0000

ITEM: TIMESTEP
50
ITEM: NUMBER OF ATOMS
3
ITEM: BOX BOUNDS pp pp pp
-5.25000000000000e+00 5.25000000000000e+00
-5.25000000000000e+00 5.25000000000000e+00
-5.25000000000000e+00 5.25000000000000e+00
ITEM: ATOMS id mol type xu yu zu
1 1 1     3.5000    -2.5000     2.5000
2 2 1     2.0000     3.0000    -1.0000
3 2 1     4.0000     4.0000    -0.5000